% Model:              FCC-ee, Allegro, MM, 4.5 m, 2 layers, 5 modules, stray magnetic field evaluation, 22-4-26.mph
% Version:            COMSOL 6.3.0.335
% Date:               Apr 24 2026, 15:19
% Dimension:          2
% Nodes:              6561
% Expressions:        2
% Description:        Magnetic flux density, r-component, Magnetic flux density, z-component
% Length unit:        m
% r                       z                        mf.Br (T)                mf.Bz (T)
0                         0                        3.365752707438219E-4     2.0186134586508513
0.1                       0                        2.0352071107954117E-4    2.0185425998432174
0.2                       0                        3.615046707494684E-4     2.020492141636602
0.30000000000000004       0                        3.341377660330084E-4     2.0237488214921795
0.4                       0                        3.638438085543094E-4     2.0283204091227907
0.5                       0                        3.7024151567521823E-4    2.0342083342882806
0.6000000000000001        0                        3.7890309167861364E-4    2.0414192705073413
0.7000000000000001        0                        3.8434566373218046E-4    2.049959664151536
0.8                       0                        3.869350962681927E-4     2.059836559483354
0.9                       0                        3.8757951967838267E-4    2.0710564446262936
1                         0                        3.8712457853407056E-4    2.0836246023427454
1.1                       0                        3.8580578254060976E-4    2.0975440533000267
1.2000000000000002        0                        3.8360983194429815E-4    2.11281457974831
1.3                       0                        3.804581360738596E-4     2.129431635301918
1.4000000000000001        0                        3.7624575633340583E-4    2.1473852287592465
1.5                       0                        3.7087338949485604E-4    2.166658875154117
1.6                       0                        3.642973495354695E-4     2.187228825595868
1.7000000000000002        0                        3.5662647900297164E-4    2.2090639586891943
1.8                       0                        3.482789528498466E-4     2.232127057122213
1.9000000000000001        0                        3.402690616383096E-4     2.2563788624140844
2                         0                        3.347213811011329E-4     2.281787528747671
2.1                       0                        3.3574184682617583E-4    2.308348384434187
2.2                       0                        3.5199752689669077E-4    2.336122895311299
2.3000000000000003        0                        3.96692339112702E-4      2.3653114662451573
2.4000000000000004        0                        4.937177648637695E-4     2.3963804565836
2.5                       0                        6.517658992095222E-4     2.4302502772218304
2.6                       0                        9.148602821194519E-4     2.468353613743812
2.7                       0                        -1.2147268710312649E-4   2.5137669801149216
2.8000000000000003        0                        -6.191348031084739E-6    2.566137387546681
2.9000000000000004        0                        -0.05827050444238544     1.3479817555431226
3                         0                        -1.031379811896234E-5    -0.348206463177424
3.1                       0                        -6.39576516123857E-5     -0.29562666459630604
3.2                       0                        1.586198653313886E-5     -2.3242170881527535
3.3000000000000003        0                        7.029826316752542E-6     -0.23392771110660637
3.4000000000000004        0                        -4.597301062189859E-6    -2.2865818365675867
3.5                       0                        3.3596789503619697E-6    -2.2739817180114574
3.6                       0                        -2.8292002853341846E-6   -0.18585589040134842
3.7                       0                        1.8968529963564609E-6    -2.2483088273083105
3.8000000000000003        0                        1.8331814640317275E-5    -2.235315011006976
3.9000000000000004        0                        1.3570462879915094E-5    -0.1556613091965795
4                         0                        -2.1746611409412253E-6   -2.215781645590056
4.1000000000000005        0                        1.3072161248312955E-6    -2.2085526436626806
4.2                       0                        -2.1624677244636543E-6   -0.13029874294009658
4.3                       0                        -1.577451207383494E-5    -2.192621039537402
4.4                       0                        -2.158547861664705E-6    -2.1842816943081163
4.5                       0                        1.065362703735041E-5     -0.11381657850377752
4.6000000000000005        0                        -2.148061071238771E-6    -2.1718840183237496
4.7                       0                        3.127514756979291E-5     -0.10222790244824109
4.800000000000001         0                        7.984208227895805E-7     -0.09540190869204176
4.9                       0                        -3.877520338373498E-7    -0.08930532892670309
5                         0                        6.491797019840817E-5     -0.08386350397676595
5.1000000000000005        0                        2.55775562749389E-4      -0.07888442518456602
5.2                       0                        5.450504068083006E-5     -0.07464158093375757
5.300000000000001         0                        -1.3917036734824385E-4   -0.07055884401316698
5.4                       0                        1.5614503617348655E-4    -0.06715603766948307
5.5                       0                        -2.8214576293998526E-5   -0.06388492347626226
5.6000000000000005        0                        3.243757290667075E-4     -0.06086513925089598
5.7                       0                        1.6989250111278085E-4    -0.0582841514398864
5.800000000000001         0                        2.0736281019066378E-5    -0.055792163208566906
5.9                       0                        -1.2336379602081204E-4   -0.05338464915458038
6                         0                        2.812329765877012E-4     -0.05128808213754135
6.1000000000000005        0                        1.6910007866330755E-4    -0.04937101012273924
6.2                       0                        6.0584370995828765E-5    -0.04751577914067211
6.300000000000001         0                        -4.4486393571839684E-5   -0.04571944438025816
6.4                       0                        -1.4627369674669044E-4   -0.04397924508110689
6.5                       0                        2.7407324021775883E-4    -0.04246663448493383
6.6000000000000005        0                        1.961414478892104E-4     -0.04103573366614215
6.7                       0                        1.2053597771952429E-4    -0.03964754630462824
6.800000000000001         0                        4.7154197849338444E-5    -0.03830018798315871
6.9                       0                        -2.410057390919103E-5    -0.03699188352607954
7                         0                        -9.331949504552484E-5    -0.03572095919634562
7.1000000000000005        0                        3.2544360559165226E-4    -0.03450818734726353
7.2                       0                        2.6299144510515896E-4    -0.03343389981399319
7.300000000000001         0                        2.0225030271406433E-4    -0.03238904481588093
7.4                       0                        1.4315081281993626E-4    -0.0313724291420424
7.5                       0                        8.562730932319222E-5     -0.030382923219505878
7.6000000000000005        0                        2.9617582234213382E-5    -0.029419456926509935
7.7                       0                        -2.493734674877448E-5    -0.028481015732033273
7.800000000000001         0                        -7.809343139856276E-5    -0.027566637132286975
7.9                       0                        -1.2990379238650673E-4   -0.02667540735785054
8                         0                        3.9909234696183793E-4    -0.025810447847803175
0                         0.1                      4.6801849951827457E-4    2.01560856668526
0.1                       0.1                      0.0013318950067352925    2.0176303029917664
0.2                       0.1                      0.002620328918260667     2.01955607519145
0.30000000000000004       0.1                      0.003925255325330132     2.022781830815828
0.4                       0.1                      0.005223071411954161     2.0273534851710986
0.5                       0.1                      0.006550768711958144     2.0332290642072732
0.6000000000000001        0.1                      0.007877565462284611     2.0404307336819487
0.7000000000000001        0.1                      0.009209432756565048     2.0489619938086383
0.8                       0.1                      0.010546757090297565     2.058829367599235
0.9                       0.1                      0.011889979968853956     2.0700399770346154
1                         0.1                      0.013237723807565605     2.0825995809404394
1.1                       0.1                      0.01458730892389439      2.0965118455587355
1.2000000000000002        0.1                      0.015934982845857704     2.111777161445806
1.3                       0.1                      0.017275861365300297     2.1283916166643384
1.4000000000000001        0.1                      0.018603945266378395     2.146345826870028
1.5                       0.1                      0.019912249028753472     2.165623810023881
1.6                       0.1                      0.021193197886336113     2.1862020268137194
1.7000000000000002        0.1                      0.02243955189901653      2.2080489253865676
1.8                       0.1                      0.023646236664316665     2.23112558015259
1.9000000000000001        0.1                      0.02481392719087544      2.2553885248631707
2                         0.1                      0.02595596843188508      2.2807968182048013
2.1                       0.1                      0.0271118252453625       2.307327321220411
2.2                       0.1                      0.028371215527869656     2.335006480331562
2.3000000000000003        0.1                      0.029917157152066505     2.363970706450144
2.4000000000000004        0.1                      0.03209120145079088      2.394583365773202
2.5                       0.1                      0.03543105752808345      2.4276411849704176
2.6                       0.1                      0.04087351049223078      2.4648776614324426
2.7                       0.1                      0.04841474109377573      2.5085542334752966
2.8000000000000003        0.1                      0.05674068654603355      2.561671207821721
2.9000000000000004        0.1                      0.23275778630383273      1.2898816080839957
3                         0.1                      0.057189712643236135     -0.3457875341794363
3.1                       0.1                      0.048366105375429645     -0.2918269512302216
3.2                       0.1                      0.04024318788302672      -2.3210463868540288
3.3000000000000003        0.1                      0.03374750974142092      -0.23170624904440906
3.4000000000000004        0.1                      0.029039812000298613     -2.284900695368087
3.5                       0.1                      0.025491550093957295     -2.2727066564952207
3.6                       0.1                      0.022826703034756517     -0.18503631011284938
3.7                       0.1                      0.020634392403582752     -2.2474926614800212
3.8000000000000003        0.1                      0.018814724572397416     -2.234649975019516
3.9000000000000004        0.1                      0.01715958915223046      -0.15514120210671312
4                         0.1                      0.015680600479193174     -2.215206983242979
4.1000000000000005        0.1                      0.014254371289252235     -2.207972452390633
4.2                       0.1                      0.01294117696697256      -0.1298530981987342
4.3                       0.1                      0.011644235709954478     -2.1920769009608487
4.4                       0.1                      0.010449636104419695     -2.183738102040519
4.5                       0.1                      0.009263862460992792     -0.11341397529904243
4.6000000000000005        0.1                      0.008184592390821966     -2.1713532481279696
4.7                       0.1                      0.007236342464896516     -0.10188690126575903
4.800000000000001         0.1                      0.006450693892552788     -0.0950789141375596
4.9                       0.1                      0.005671259281703381     -0.0889944444268465
5                         0.1                      0.005152337628517501     -0.08354418996409761
5.1000000000000005        0.1                      0.004577355188298923     -0.07876425374675076
5.2                       0.1                      0.004098681288607908     -0.07444522917250955
5.300000000000001         0.1                      0.0037160276560117595    -0.07053821737421956
5.4                       0.1                      0.0033217173121226195    -0.06697115556486306
5.5                       0.1                      0.003079801840094457     -0.063703402864454
5.6000000000000005        0.1                      0.002747781352617336     -0.06092539281519013
5.7                       0.1                      0.002569478239855499     -0.058135359014196475
5.800000000000001         0.1                      0.0023789498518524037    -0.055645936169526455
5.9                       0.1                      0.0022824289590389524    -0.053481936481127784
6                         0.1                      0.002096479518877814     -0.05117876757426239
6.1000000000000005        0.1                      0.0019545884809166053    -0.049263487601480804
6.2                       0.1                      0.0018172745732121028    -0.04740999085362765
6.300000000000001         0.1                      0.0016843198371805296    -0.04561533527237305
6.4                       0.1                      0.0016730291601658313    -0.04418264447089828
6.5                       0.1                      0.0016174916437201423    -0.04239172025334198
6.6000000000000005        0.1                      0.0015192050270961702    -0.040961954498665326
6.7                       0.1                      0.001423852339326513     -0.0395748683187554
6.800000000000001         0.1                      0.0013313041423736098    -0.0382285787911958
6.9                       0.1                      0.0012414385018539962    -0.03692131214849304
7                         0.1                      0.0011541404510639897    -0.03565139598129585
7.1000000000000005        0.1                      0.001182609343451653     -0.034787440116886004
7.2                       0.1                      0.0012416004423028272    -0.033375967703584364
7.300000000000001         0.1                      0.0011674536972104553    -0.032331906296025774
7.4                       0.1                      0.0010953109182013912    -0.03131606276434708
7.5                       0.1                      0.0010250919466328649    -0.030327308393513427
7.6000000000000005        0.1                      9.567208427371798E-4     -0.02936457387454358
7.7                       0.1                      8.901256116699128E-4     -0.028426845446975647
7.800000000000001         0.1                      8.252379506298727E-4     -0.027513161338063294
7.9                       0.1                      7.619930151857283E-4     -0.02662260847241442
8                         0.1                      8.601019602837018E-4     -0.02619803473758894
0                         0.2                      7.908705969544849E-4     2.010716058828747
0.1                       0.2                      0.002604655823722716     2.0136939652972647
0.2                       0.2                      0.0052854415556816865    2.015541735882299
0.30000000000000004       0.2                      0.007770807309374995     2.0186627267199952
0.4                       0.2                      0.0103790278471938       2.0234476315946415
0.5                       0.2                      0.013050551638257912     2.029302330678275
0.6000000000000001        0.2                      0.015709419085212922     2.036478147660523
0.7000000000000001        0.2                      0.018378119486261186     2.0449903289245466
0.8                       0.2                      0.02105838411647635      2.0548422767471273
0.9                       0.2                      0.02375178088536804      2.0660396604474474
1                         0.2                      0.026454993857511266     2.0785896238380266
1.1                       0.2                      0.029162892691816177     2.092497475716616
1.2000000000000002        0.2                      0.031868154887328595     2.1077655313826074
1.3                       0.2                      0.03456113576483267      2.124391911928414
1.4000000000000001        0.2                      0.03722974444802581      2.1423692912603682
1.5                       0.2                      0.039859634128504975     2.1616834624583094
1.6                       0.2                      0.04243475926406004      2.182311886533545
1.7000000000000002        0.2                      0.04493868826099328      2.204222340166097
1.8                       0.2                      0.0473573371369973       2.2273718522692265
1.9000000000000001        0.2                      0.049684441557321705     2.2517062633385
2                         0.2                      0.05193234160810567      2.2771610242873406
2.1                       0.2                      0.054152738362044636     2.303665144377255
2.2                       0.2                      0.05647604176221515      2.3311520648704342
2.3000000000000003        0.2                      0.05918448299844514      2.359589011930923
2.4000000000000004        0.2                      0.0628494173115568       2.3890528157247015
2.5                       0.2                      0.06850735966333446      2.4199158968479026
2.6                       0.2                      0.07891090142030666      2.4529106273762338
2.7                       0.2                      0.09532292932046059      2.491908906143042
2.8000000000000003        0.2                      0.11742002580878412      2.545325147341997
2.9000000000000004        0.2                      0.43679344545361         1.2063378994970082
3                         0.2                      0.12009683167354979      -0.33545713579527114
3.1                       0.2                      0.09625010874731427      -0.27857835022629795
3.2                       0.2                      0.07765611429128683      -2.311484810029043
3.3000000000000003        0.2                      0.06498396529932676      -0.22527995362407416
3.4000000000000004        0.2                      0.056269352325891885     -2.280221949620594
3.5                       0.2                      0.049831645951573675     -2.2691366248206544
3.6                       0.2                      0.04495448681124958      -0.18275823610786623
3.7                       0.2                      0.04087170973282018      -2.2452546499278316
3.8000000000000003        0.2                      0.037405403762550235     -2.232739809753908
3.9000000000000004        0.2                      0.03420426706526879      -0.15364014300950235
4                         0.2                      0.031291332607452205     -2.2135190182523417
4.1000000000000005        0.2                      0.028470622691851688     -2.2063010228082085
4.2                       0.2                      0.025842679165670627     -0.1285193152911493
4.3                       0.2                      0.02324694456557606      -2.1904345169507926
4.4                       0.2                      0.020846152184400456     -2.182126899294077
4.5                       0.2                      0.018459423924532023     -0.11222513796754657
4.6000000000000005        0.2                      0.016300591645614055     -2.1698346037373746
4.7                       0.2                      0.014405281185887322     -0.10086734920621851
4.800000000000001         0.2                      0.012840401562463539     -0.09417343392103639
4.9                       0.2                      0.0114129567957051       -0.08821503647170799
5                         0.2                      0.01023194675642003      -0.08292524494063996
5.1000000000000005        0.2                      0.009132012267194685     -0.07813559587993373
5.2                       0.2                      0.008115611324676855     -0.07387388448030116
5.300000000000001         0.2                      0.007374578431256091     -0.07007961685601045
5.4                       0.2                      0.0067879042479896045    -0.06650516513712061
5.5                       0.2                      0.006062724360483204     -0.06332140671644998
5.6000000000000005        0.2                      0.005559385388728231     -0.0605303167784431
5.7                       0.2                      0.00507370743352634      -0.057837159820716494
5.800000000000001         0.2                      0.004737163422685826     -0.05549970913048666
5.9                       0.2                      0.004394109460205149     -0.05317930113168351
6                         0.2                      0.0040232828755823085    -0.05112224726484789
6.1000000000000005        0.2                      0.00374007688316903      -0.04915596508022243
6.2                       0.2                      0.0035739647754282804    -0.04730420256658324
6.300000000000001         0.2                      0.0034131260679334937    -0.045511226164488
6.4                       0.2                      0.0032177869726911744    -0.043971066395056435
6.5                       0.2                      0.0029599595292054454    -0.04245658709811353
6.6000000000000005        0.2                      0.002842268606302995     -0.040888175331188624
6.7                       0.2                      0.002727168700933269     -0.03950219033288284
6.800000000000001         0.2                      0.0026154540868980206    -0.03815696959923307
6.9                       0.2                      0.002506977577617272     -0.03685074077090652
7                         0.2                      0.00249428767317699      -0.035774275434261975
7.1000000000000005        0.2                      0.002303568498786037     -0.034631851754793434
7.2                       0.2                      0.0021181470792391737    -0.03352116206642125
7.300000000000001         0.2                      0.0021326570917066336    -0.03227476777617036
7.4                       0.2                      0.002047471023583026     -0.03125969638665206
7.5                       0.2                      0.001964556583942671     -0.030271693567520797
7.6000000000000005        0.2                      0.0018838241032402047    -0.02930969082257722
7.7                       0.2                      0.0018051885700884015    -0.028372675161917885
7.800000000000001         0.2                      0.001728569332658482     -0.02745968554383961
7.9                       0.2                      0.0018001004521244399    -0.026875021814523906
8                         0.2                      0.001644008096019757     -0.026064443637135823
0                         0.30000000000000004      0.0011553067470139178    2.0033341001961653
0.1                       0.30000000000000004      0.0039507391363579475    2.007168931791829
0.2                       0.30000000000000004      0.007945551518474536     2.0090684082032806
0.30000000000000004       0.30000000000000004      0.011589730019057424     2.0122412457038856
0.4                       0.30000000000000004      0.01563130094278886      2.0167186416011864
0.5                       0.30000000000000004      0.019577775315314128     2.0227372524387413
0.6000000000000001        0.30000000000000004      0.023545060943913617     2.0299248079473613
0.7000000000000001        0.30000000000000004      0.027548611052733898     2.0384152166103418
0.8                       0.30000000000000004      0.031576707467898535     2.0482383696489843
0.9                       0.30000000000000004      0.035627477544273804     2.059409977656651
1                         0.30000000000000004      0.03969536615549574      2.071940119934365
1.1                       0.30000000000000004      0.04377308862918932      2.0858370920032314
1.2000000000000002        0.30000000000000004      0.04785035550825804      2.1011064364535015
1.3                       0.30000000000000004      0.051912524969512236     2.11775013351739
1.4000000000000001        0.30000000000000004      0.055941249045451856     2.135764621995164
1.5                       0.30000000000000004      0.05991430960722847      2.155139189450896
1.6                       0.30000000000000004      0.06380590966852617      2.1758539345606165
1.7000000000000002        0.30000000000000004      0.0675876503983615       2.1978771770811947
1.8                       0.30000000000000004      0.07123081436297794      2.2211619945622436
1.9000000000000001        0.30000000000000004      0.07471147121816032      2.2456412649281177
2                         0.30000000000000004      0.07802148430284818      2.2712202242586366
2.1                       0.30000000000000004      0.08118491976906754      2.297764681207813
2.2                       0.30000000000000004      0.08430050255015299      2.325077767648748
2.3000000000000003        0.30000000000000004      0.08761943853796461      2.3528625904747216
2.4000000000000004        0.30000000000000004      0.09171781502254428      2.3806755603902245
2.5                       0.30000000000000004      0.09793421320237315      2.408035677682202
2.6                       0.30000000000000004      0.1095020362831834       2.4344232532099084
2.7                       0.30000000000000004      0.1329088775400638       2.45996765775401
2.8000000000000003        0.30000000000000004      0.1827139467358713       2.499928105196482
2.9000000000000004        0.30000000000000004      -0.08081163669595329     1.2020015419603498
3                         0.30000000000000004      0.19584076612624318      -0.3000049839772885
3.1                       0.30000000000000004      0.13725066856002213      -0.2507211887335954
3.2                       0.30000000000000004      0.10649717875536036      -2.296327967415106
3.3000000000000003        0.30000000000000004      0.09050099673810008      -0.21591445152642497
3.4000000000000004        0.30000000000000004      0.07998765664590018      -2.273691137973029
3.5                       0.30000000000000004      0.07212586116293407      -2.2641634498459746
3.6                       0.30000000000000004      0.06593347602038224      -0.1794865597901839
3.7                       0.30000000000000004      0.06048463645060356      -2.2419179655323687
3.8000000000000003        0.30000000000000004      0.05567687347698472      -2.229699291197891
3.9000000000000004        0.30000000000000004      0.051076678411702596     -0.15122059981371333
4                         0.30000000000000004      0.046822365267521704     -2.210679624649103
4.1000000000000005        0.30000000000000004      0.04261686348800638      -2.2035587092520705
4.2                       0.30000000000000004      0.038693481945401904     -0.12630681095683505
4.3                       0.30000000000000004      0.0347732420015569       -2.1877106916473408
4.4                       0.30000000000000004      0.03114596861638639      -2.179388175287426
4.5                       0.30000000000000004      0.0275238605392608       -0.11021262535285811
4.6000000000000005        0.30000000000000004      0.024262767332211214     -2.1671360937371027
4.7                       0.30000000000000004      0.02140472156262473      -0.09914446399254141
4.800000000000001         0.30000000000000004      0.01905954504044516      -0.09264757118311538
4.9                       0.30000000000000004      0.016928422420167323     -0.08689537517243005
5                         0.30000000000000004      0.015132387029265539     -0.0817535743097519
5.1000000000000005        0.30000000000000004      0.013535427211146792     -0.07715174845061144
5.2                       0.30000000000000004      0.012173095348850676     -0.07301850995722307
5.300000000000001         0.30000000000000004      0.010991979805278154     -0.06926192981447012
5.4                       0.30000000000000004      0.009964145785870864     -0.0659046136705749
5.5                       0.30000000000000004      0.00923024646147978      -0.06271637502376913
5.6000000000000005        0.30000000000000004      0.00837864482532599      -0.06008213280907011
5.7                       0.30000000000000004      0.007835985083037181     -0.05744901494250948
5.800000000000001         0.30000000000000004      0.006925811954104947     -0.05499943469018448
5.9                       0.30000000000000004      0.006505789961371751     -0.05287666578224022
6                         0.30000000000000004      0.006099768701729716     -0.05082465583789486